<?xml version="1.0" encoding="UTF-8"?>

<!-- generated on 2022-11-14 12:42:34 by Eclipse SUMO sumo Version 1.13.0
<configuration xmlns:xsi="http://www.w3.org/2001/XMLSchema-instance" xsi:noNamespaceSchemaLocation="http://sumo.dlr.de/xsd/sumoConfiguration.xsd">

    <input>
        <net-file value="..\sumo\demoAAA.net.xml"/>
        <route-files value="..\sumo\demoAAA.rou.xml"/>
        <additional-files value="..\sumo\demoAAA.add.xml"/>
    </input>

    <output>
        <tripinfo-output value="..\sumo\_tripinfo.xml"/>
    </output>

    <traci_server>
        <remote-port value="1123"/>
    </traci_server>

</configuration>
-->

<tripinfos xmlns:xsi="http://www.w3.org/2001/XMLSchema-instance" xsi:noNamespaceSchemaLocation="http://sumo.dlr.de/xsd/tripinfo_file.xsd">
    <tripinfo id="6" depart="13.00" departLane="-E10_0" departPos="5.10" departSpeed="0.00" departDelay="0.35" arrival="28.00" arrivalLane="-E20_0" arrivalPos="61.21" arrivalSpeed="14.16" duration="15.00" routeLength="156.90" waitingTime="0.00" waitingCount="0" stopTime="0.00" timeLoss="3.04" rerouteNo="0" devices="tripinfo_6" vType="DEFAULT_VEHTYPE" speedFactor="1.05" vaporized=""/>
    <tripinfo id="13" depart="28.00" departLane="-E14_0" departPos="5.10" departSpeed="0.00" departDelay="0.60" arrival="36.00" arrivalLane="-E14_0" arrivalPos="71.43" arrivalSpeed="15.15" duration="8.00" routeLength="66.33" waitingTime="0.00" waitingCount="0" stopTime="0.00" timeLoss="3.43" rerouteNo="0" devices="tripinfo_13" vType="DEFAULT_VEHTYPE" speedFactor="1.12" vaporized=""/>
    <tripinfo id="7" depart="15.00" departLane="E20_0" departPos="5.10" departSpeed="0.00" departDelay="0.24" arrival="43.00" arrivalLane="E15_1" arrivalPos="37.03" arrivalSpeed="11.81" duration="28.00" routeLength="276.73" waitingTime="0.00" waitingCount="0" stopTime="0.00" timeLoss="4.35" rerouteNo="0" devices="tripinfo_7" vType="DEFAULT_VEHTYPE" speedFactor="0.89" vaporized=""/>
    <tripinfo id="3" depart="7.00" departLane="E3_0" departPos="5.10" departSpeed="0.00" departDelay="0.68" arrival="78.00" arrivalLane="-E12_0" arrivalPos="113.47" arrivalSpeed="14.83" duration="71.00" routeLength="932.03" waitingTime="0.00" waitingCount="0" stopTime="0.00" timeLoss="7.13" rerouteNo="0" devices="tripinfo_3" vType="DEFAULT_VEHTYPE" speedFactor="1.08" vaporized=""/>
    <tripinfo id="10" depart="22.00" departLane="E27_0" departPos="5.10" departSpeed="0.00" departDelay="0.92" arrival="79.00" arrivalLane="E22_0" arrivalPos="73.63" arrivalSpeed="6.33" duration="57.00" routeLength="557.51" waitingTime="0.00" waitingCount="0" stopTime="0.00" timeLoss="19.23" rerouteNo="0" devices="tripinfo_10" vType="DEFAULT_VEHTYPE" speedFactor="1.09" vaporized=""/>
    <tripinfo id="2" depart="5.00" departLane="E23_0" departPos="5.10" departSpeed="0.00" departDelay="0.78" arrival="85.00" arrivalLane="E21_1" arrivalPos="59.62" arrivalSpeed="13.09" duration="80.00" routeLength="960.24" waitingTime="0.00" waitingCount="0" stopTime="0.00" timeLoss="10.34" rerouteNo="0" devices="tripinfo_2" vType="DEFAULT_VEHTYPE" speedFactor="1.01" vaporized=""/>
    <tripinfo id="33" depart="70.00" departLane="-E21_0" departPos="5.10" departSpeed="0.00" departDelay="0.43" arrival="91.00" arrivalLane="-E11_1" arrivalPos="73.09" arrivalSpeed="16.16" duration="21.00" routeLength="262.45" waitingTime="0.00" waitingCount="0" stopTime="0.00" timeLoss="4.71" rerouteNo="0" devices="tripinfo_33" vType="DEFAULT_VEHTYPE" speedFactor="1.17" vaporized=""/>
    <tripinfo id="39" depart="83.00" departLane="-E22_0" departPos="5.10" departSpeed="0.00" departDelay="0.79" arrival="92.00" arrivalLane="-E22_0" arrivalPos="73.63" arrivalSpeed="12.07" duration="9.00" routeLength="68.53" waitingTime="0.00" waitingCount="0" stopTime="0.00" timeLoss="3.25" rerouteNo="0" devices="tripinfo_39" vType="DEFAULT_VEHTYPE" speedFactor="0.90" vaporized=""/>
    <tripinfo id="0" depart="0.00" departLane="E20_0" departPos="5.10" departSpeed="0.00" departDelay="0.00" arrival="93.00" arrivalLane="-E10_0" arrivalPos="78.75" arrivalSpeed="14.09" duration="93.00" routeLength="1149.05" waitingTime="0.00" waitingCount="0" stopTime="0.00" timeLoss="12.83" rerouteNo="0" devices="tripinfo_0" vType="DEFAULT_VEHTYPE" speedFactor="1.06" vaporized=""/>
    <tripinfo id="37" depart="78.00" departLane="E20_0" departPos="5.10" departSpeed="0.00" departDelay="0.00" arrival="93.00" arrivalLane="E10_1" arrivalPos="78.75" arrivalSpeed="15.33" duration="15.00" routeLength="151.03" waitingTime="0.00" waitingCount="0" stopTime="0.00" timeLoss="4.61" rerouteNo="0" devices="tripinfo_37" vType="DEFAULT_VEHTYPE" speedFactor="1.18" vaporized=""/>
    <tripinfo id="4" depart="9.00" departLane="E10_0" departPos="5.10" departSpeed="0.00" departDelay="0.57" arrival="99.00" arrivalLane="-E10_0" arrivalPos="78.75" arrivalSpeed="13.26" duration="90.00" routeLength="1071.67" waitingTime="0.00" waitingCount="0" stopTime="0.00" timeLoss="13.27" rerouteNo="0" devices="tripinfo_4" vType="DEFAULT_VEHTYPE" speedFactor="1.03" vaporized=""/>
    <tripinfo id="16" depart="37.00" departLane="E15_0" departPos="5.10" departSpeed="0.00" departDelay="3.27" arrival="110.00" arrivalLane="E9_1" arrivalPos="77.89" arrivalSpeed="11.41" duration="73.00" routeLength="722.07" waitingTime="0.00" waitingCount="0" stopTime="0.00" timeLoss="12.13" rerouteNo="0" devices="tripinfo_16" vType="DEFAULT_VEHTYPE" speedFactor="0.88" vaporized=""/>
    <tripinfo id="1" depart="3.00" departLane="-E23_0" departPos="5.10" departSpeed="0.00" departDelay="0.89" arrival="112.00" arrivalLane="-E21_0" arrivalPos="59.62" arrivalSpeed="13.00" duration="109.00" routeLength="1268.58" waitingTime="0.00" waitingCount="0" stopTime="0.00" timeLoss="9.59" rerouteNo="0" devices="tripinfo_1" vType="DEFAULT_VEHTYPE" speedFactor="0.94" vaporized=""/>
    <tripinfo id="17" depart="36.00" departLane="-E9_0" departPos="5.10" departSpeed="0.00" departDelay="0.16" arrival="112.00" arrivalLane="E16_0" arrivalPos="75.70" arrivalSpeed="12.56" duration="76.00" routeLength="787.99" waitingTime="0.00" waitingCount="0" stopTime="0.00" timeLoss="14.33" rerouteNo="0" devices="tripinfo_17" vType="DEFAULT_VEHTYPE" speedFactor="0.94" vaporized=""/>
    <tripinfo id="8" depart="17.00" departLane="-E21_0" departPos="5.10" departSpeed="0.00" departDelay="0.14" arrival="114.00" arrivalLane="E18_0" arrivalPos="88.18" arrivalSpeed="12.47" duration="97.00" routeLength="1007.84" waitingTime="0.00" waitingCount="0" stopTime="0.00" timeLoss="17.70" rerouteNo="0" devices="tripinfo_8" vType="DEFAULT_VEHTYPE" speedFactor="0.94" vaporized=""/>
    <tripinfo id="11" depart="24.00" departLane="-E30_0" departPos="5.10" departSpeed="0.00" departDelay="0.81" arrival="116.00" arrivalLane="-E2_0" arrivalPos="342.84" arrivalSpeed="5.78" duration="92.00" routeLength="1046.15" waitingTime="0.00" waitingCount="0" stopTime="0.00" timeLoss="18.57" rerouteNo="0" devices="tripinfo_11" vType="DEFAULT_VEHTYPE" speedFactor="1.03" vaporized=""/>
    <tripinfo id="26" depart="55.00" departLane="-E22_0" departPos="5.10" departSpeed="0.00" departDelay="0.19" arrival="117.00" arrivalLane="E30_0" arrivalPos="259.85" arrivalSpeed="11.52" duration="62.00" routeLength="707.13" waitingTime="0.00" waitingCount="0" stopTime="0.00" timeLoss="6.29" rerouteNo="0" devices="tripinfo_26" vType="DEFAULT_VEHTYPE" speedFactor="0.92" vaporized=""/>
    <tripinfo id="27" depart="57.00" departLane="E20_0" departPos="5.10" departSpeed="0.00" departDelay="0.08" arrival="127.00" arrivalLane="E2_0" arrivalPos="348.03" arrivalSpeed="12.44" duration="70.00" routeLength="802.78" waitingTime="0.00" waitingCount="0" stopTime="0.00" timeLoss="7.61" rerouteNo="0" devices="tripinfo_27" vType="DEFAULT_VEHTYPE" speedFactor="0.95" vaporized=""/>
    <tripinfo id="47" depart="100.00" departLane="-E12_0" departPos="5.10" departSpeed="0.00" departDelay="0.92" arrival="127.00" arrivalLane="-E9_1" arrivalPos="77.89" arrivalSpeed="12.50" duration="27.00" routeLength="283.48" waitingTime="0.00" waitingCount="0" stopTime="0.00" timeLoss="4.04" rerouteNo="0" devices="tripinfo_47" vType="DEFAULT_VEHTYPE" speedFactor="0.90" vaporized=""/>
    <tripinfo id="19" depart="41.00" departLane="E29_0" departPos="5.10" departSpeed="0.00" departDelay="0.95" arrival="129.00" arrivalLane="E18_0" arrivalPos="88.18" arrivalSpeed="7.23" duration="88.00" routeLength="933.94" waitingTime="0.00" waitingCount="0" stopTime="0.00" timeLoss="28.00" rerouteNo="0" devices="tripinfo_19" vType="DEFAULT_VEHTYPE" speedFactor="1.16" vaporized=""/>
    <tripinfo id="21" depart="46.00" departLane="-E21_0" departPos="5.10" departSpeed="0.00" departDelay="1.73" arrival="133.00" arrivalLane="-E23_0" arrivalPos="160.62" arrivalSpeed="13.50" duration="87.00" routeLength="942.88" waitingTime="0.00" waitingCount="0" stopTime="0.00" timeLoss="18.93" rerouteNo="0" devices="tripinfo_21" vType="DEFAULT_VEHTYPE" speedFactor="1.01" vaporized=""/>
    <tripinfo id="9" depart="19.00" departLane="E27_0" departPos="5.10" departSpeed="0.00" departDelay="0.03" arrival="146.00" arrivalLane="-E10_1" arrivalPos="78.75" arrivalSpeed="10.77" duration="127.00" routeLength="1278.25" waitingTime="0.00" waitingCount="0" stopTime="0.00" timeLoss="18.08" rerouteNo="0" devices="tripinfo_9" vType="DEFAULT_VEHTYPE" speedFactor="0.86" vaporized=""/>
    <tripinfo id="25" depart="54.00" departLane="-E9_0" departPos="5.10" departSpeed="0.00" departDelay="1.30" arrival="148.00" arrivalLane="-E20_0" arrivalPos="61.21" arrivalSpeed="11.54" duration="94.00" routeLength="954.42" waitingTime="0.00" waitingCount="0" stopTime="0.00" timeLoss="14.30" rerouteNo="0" devices="tripinfo_25" vType="DEFAULT_VEHTYPE" speedFactor="0.87" vaporized=""/>
    <tripinfo id="41" depart="87.00" departLane="E18_0" departPos="5.10" departSpeed="0.00" departDelay="0.57" arrival="150.00" arrivalLane="E3_0" arrivalPos="461.90" arrivalSpeed="13.06" duration="63.00" routeLength="721.27" waitingTime="0.00" waitingCount="0" stopTime="0.00" timeLoss="7.78" rerouteNo="0" devices="tripinfo_41" vType="DEFAULT_VEHTYPE" speedFactor="0.96" vaporized=""/>
    <tripinfo id="30" depart="64.00" departLane="E9_0" departPos="5.10" departSpeed="0.00" departDelay="0.76" arrival="158.00" arrivalLane="E20_0" arrivalPos="61.21" arrivalSpeed="16.32" duration="94.00" routeLength="1158.33" waitingTime="0.00" waitingCount="0" stopTime="0.00" timeLoss="22.06" rerouteNo="0" devices="tripinfo_30" vType="DEFAULT_VEHTYPE" speedFactor="1.18" vaporized=""/>
    <tripinfo id="79" depart="167.00" departLane="-E21_0" departPos="5.10" departSpeed="0.00" departDelay="0.47" arrival="174.00" arrivalLane="-E21_0" arrivalPos="59.62" arrivalSpeed="14.10" duration="7.00" routeLength="54.52" waitingTime="0.00" waitingCount="0" stopTime="0.00" timeLoss="3.30" rerouteNo="0" devices="tripinfo_79" vType="DEFAULT_VEHTYPE" speedFactor="1.09" vaporized=""/>
    <tripinfo id="73" depart="158.00" departLane="E15_0" departPos="5.10" departSpeed="0.00" departDelay="4.11" arrival="180.00" arrivalLane="E23_0" arrivalPos="160.62" arrivalSpeed="7.22" duration="22.00" routeLength="203.00" waitingTime="0.00" waitingCount="0" stopTime="0.00" timeLoss="8.14" rerouteNo="0" devices="tripinfo_73" vType="DEFAULT_VEHTYPE" speedFactor="1.06" vaporized=""/>
    <tripinfo id="29" depart="100.00" departLane="-E2_0" departPos="5.10" departSpeed="0.00" departDelay="38.87" arrival="181.00" arrivalLane="-E9_0" arrivalPos="77.89" arrivalSpeed="12.80" duration="81.00" routeLength="726.45" waitingTime="6.00" waitingCount="1" stopTime="0.00" timeLoss="23.60" rerouteNo="0" devices="tripinfo_29" vType="DEFAULT_VEHTYPE" speedFactor="0.93" vaporized=""/>
    <tripinfo id="51" depart="108.00" departLane="E21_0" departPos="5.10" departSpeed="0.00" departDelay="0.49" arrival="185.00" arrivalLane="E15_1" arrivalPos="37.03" arrivalSpeed="15.54" duration="77.00" routeLength="1075.03" waitingTime="0.00" waitingCount="0" stopTime="0.00" timeLoss="9.74" rerouteNo="0" devices="tripinfo_51" vType="DEFAULT_VEHTYPE" speedFactor="1.17" vaporized=""/>
    <tripinfo id="34" depart="72.00" departLane="-E3_0" departPos="5.10" departSpeed="0.00" departDelay="0.33" arrival="190.00" arrivalLane="-E22_0" arrivalPos="73.63" arrivalSpeed="12.80" duration="118.00" routeLength="1345.59" waitingTime="0.00" waitingCount="0" stopTime="0.00" timeLoss="18.37" rerouteNo="0" devices="tripinfo_34" vType="DEFAULT_VEHTYPE" speedFactor="0.99" vaporized=""/>
    <tripinfo id="55" depart="116.00" departLane="E29_0" departPos="5.10" departSpeed="0.00" departDelay="0.06" arrival="192.00" arrivalLane="-E22_0" arrivalPos="73.63" arrivalSpeed="13.35" duration="76.00" routeLength="751.27" waitingTime="0.00" waitingCount="0" stopTime="0.00" timeLoss="20.12" rerouteNo="0" devices="tripinfo_55" vType="DEFAULT_VEHTYPE" speedFactor="1.00" vaporized=""/>
    <tripinfo id="44" depart="93.00" departLane="-E14_0" departPos="5.10" departSpeed="0.00" departDelay="0.25" arrival="195.00" arrivalLane="-E11_1" arrivalPos="73.09" arrivalSpeed="13.81" duration="102.00" routeLength="1260.24" waitingTime="0.00" waitingCount="0" stopTime="0.00" timeLoss="13.10" rerouteNo="0" devices="tripinfo_44" vType="DEFAULT_VEHTYPE" speedFactor="1.04" vaporized=""/>
    <tripinfo id="43" depart="91.00" departLane="E9_0" departPos="5.10" departSpeed="0.00" departDelay="0.35" arrival="204.00" arrivalLane="E14_0" arrivalPos="71.43" arrivalSpeed="13.53" duration="113.00" routeLength="1332.39" waitingTime="0.00" waitingCount="0" stopTime="0.00" timeLoss="19.13" rerouteNo="0" devices="tripinfo_43" vType="DEFAULT_VEHTYPE" speedFactor="1.04" vaporized=""/>
    <tripinfo id="52" depart="110.00" departLane="-E22_0" departPos="5.10" departSpeed="0.00" departDelay="0.38" arrival="212.00" arrivalLane="E20_0" arrivalPos="61.21" arrivalSpeed="13.88" duration="102.00" routeLength="1240.00" waitingTime="0.00" waitingCount="0" stopTime="0.00" timeLoss="13.14" rerouteNo="0" devices="tripinfo_52" vType="DEFAULT_VEHTYPE" speedFactor="1.02" vaporized=""/>
    <tripinfo id="20" depart="48.00" departLane="E22_0" departPos="5.10" departSpeed="0.00" departDelay="5.84" arrival="219.00" arrivalLane="-E11_1" arrivalPos="73.09" arrivalSpeed="12.85" duration="171.00" routeLength="1896.81" waitingTime="0.00" waitingCount="0" stopTime="0.00" timeLoss="35.15" rerouteNo="0" devices="tripinfo_20" vType="DEFAULT_VEHTYPE" speedFactor="1.02" vaporized=""/>
    <tripinfo id="5" depart="11.00" departLane="-E21_0" departPos="5.10" departSpeed="0.00" departDelay="0.46" arrival="227.00" arrivalLane="E14_0" arrivalPos="71.43" arrivalSpeed="11.12" duration="216.00" routeLength="2170.70" waitingTime="0.00" waitingCount="0" stopTime="0.00" timeLoss="24.13" rerouteNo="0" devices="tripinfo_5" vType="DEFAULT_VEHTYPE" speedFactor="0.83" vaporized=""/>
    <tripinfo id="22" depart="47.00" departLane="-E12_0" departPos="5.10" departSpeed="0.00" departDelay="0.62" arrival="227.00" arrivalLane="-E21_0" arrivalPos="59.62" arrivalSpeed="12.15" duration="180.00" routeLength="1981.42" waitingTime="0.00" waitingCount="0" stopTime="0.00" timeLoss="31.83" rerouteNo="0" devices="tripinfo_22" vType="DEFAULT_VEHTYPE" speedFactor="0.97" vaporized=""/>
    <tripinfo id="23" depart="49.00" departLane="-E14_0" departPos="5.10" departSpeed="0.00" departDelay="0.52" arrival="229.00" arrivalLane="-E23_0" arrivalPos="160.62" arrivalSpeed="12.07" duration="180.00" routeLength="1940.67" waitingTime="0.00" waitingCount="0" stopTime="0.00" timeLoss="19.95" rerouteNo="0" devices="tripinfo_23" vType="DEFAULT_VEHTYPE" speedFactor="0.89" vaporized=""/>
    <tripinfo id="48" depart="102.00" departLane="E9_0" departPos="5.10" departSpeed="0.00" departDelay="0.81" arrival="229.00" arrivalLane="E15_0" arrivalPos="37.03" arrivalSpeed="11.75" duration="127.00" routeLength="1321.02" waitingTime="0.00" waitingCount="0" stopTime="0.00" timeLoss="14.68" rerouteNo="0" devices="tripinfo_48" vType="DEFAULT_VEHTYPE" speedFactor="0.88" vaporized=""/>
    <tripinfo id="65" depart="138.00" departLane="-E3_0" departPos="5.10" departSpeed="0.00" departDelay="0.98" arrival="231.00" arrivalLane="-E11_0" arrivalPos="73.09" arrivalSpeed="11.55" duration="93.00" routeLength="969.49" waitingTime="0.00" waitingCount="0" stopTime="0.00" timeLoss="11.79" rerouteNo="0" devices="tripinfo_65" vType="DEFAULT_VEHTYPE" speedFactor="0.88" vaporized=""/>
    <tripinfo id="54" depart="114.00" departLane="E11_0" departPos="5.10" departSpeed="0.00" departDelay="0.17" arrival="232.00" arrivalLane="E31_0" arrivalPos="113.16" arrivalSpeed="13.14" duration="118.00" routeLength="1277.58" waitingTime="0.00" waitingCount="0" stopTime="0.00" timeLoss="23.68" rerouteNo="0" devices="tripinfo_54" vType="DEFAULT_VEHTYPE" speedFactor="1.00" vaporized=""/>
    <tripinfo id="49" depart="105.00" departLane="E9_0" departPos="5.10" departSpeed="0.00" departDelay="1.71" arrival="233.00" arrivalLane="E29_0" arrivalPos="107.39" arrivalSpeed="10.59" duration="128.00" routeLength="1276.25" waitingTime="0.00" waitingCount="0" stopTime="0.00" timeLoss="16.86" rerouteNo="0" devices="tripinfo_49" vType="DEFAULT_VEHTYPE" speedFactor="0.85" vaporized=""/>
    <tripinfo id="36" depart="76.00" departLane="E29_0" departPos="5.10" departSpeed="0.00" departDelay="0.11" arrival="234.00" arrivalLane="-E3_0" arrivalPos="459.89" arrivalSpeed="12.33" duration="158.00" routeLength="1856.77" waitingTime="0.00" waitingCount="0" stopTime="0.00" timeLoss="18.05" rerouteNo="0" devices="tripinfo_36" vType="DEFAULT_VEHTYPE" speedFactor="0.97" vaporized=""/>
    <tripinfo id="50" depart="106.00" departLane="-E10_0" departPos="5.10" departSpeed="0.00" departDelay="0.60" arrival="235.00" arrivalLane="E22_0" arrivalPos="73.63" arrivalSpeed="11.21" duration="129.00" routeLength="1354.33" waitingTime="0.00" waitingCount="0" stopTime="0.00" timeLoss="11.95" rerouteNo="0" devices="tripinfo_50" vType="DEFAULT_VEHTYPE" speedFactor="0.85" vaporized=""/>
    <tripinfo id="28" depart="64.00" departLane="-E2_0" departPos="5.10" departSpeed="0.00" departDelay="4.98" arrival="239.00" arrivalLane="E23_0" arrivalPos="160.62" arrivalSpeed="8.57" duration="175.00" routeLength="1951.25" waitingTime="0.00" waitingCount="0" stopTime="0.00" timeLoss="48.90" rerouteNo="0" devices="tripinfo_28" vType="DEFAULT_VEHTYPE" speedFactor="1.13" vaporized=""/>
    <tripinfo id="45" depart="96.00" departLane="-E14_0" departPos="5.10" departSpeed="0.00" departDelay="1.14" arrival="241.00" arrivalLane="E2_0" arrivalPos="348.03" arrivalSpeed="9.02" duration="145.00" routeLength="1744.80" waitingTime="0.00" waitingCount="0" stopTime="0.00" timeLoss="26.14" rerouteNo="0" devices="tripinfo_45" vType="DEFAULT_VEHTYPE" speedFactor="1.09" vaporized=""/>
    <tripinfo id="38" depart="81.00" departLane="E30_0" departPos="5.10" departSpeed="0.00" departDelay="0.89" arrival="242.00" arrivalLane="E12_0" arrivalPos="113.47" arrivalSpeed="14.94" duration="161.00" routeLength="1909.38" waitingTime="0.00" waitingCount="0" stopTime="0.00" timeLoss="33.05" rerouteNo="0" devices="tripinfo_38" vType="DEFAULT_VEHTYPE" speedFactor="1.10" vaporized=""/>
    <tripinfo id="42" depart="89.00" departLane="E10_0" departPos="5.10" departSpeed="0.00" departDelay="0.46" arrival="245.00" arrivalLane="-E21_0" arrivalPos="59.62" arrivalSpeed="13.98" duration="156.00" routeLength="1971.28" waitingTime="0.00" waitingCount="0" stopTime="0.00" timeLoss="22.44" rerouteNo="0" devices="tripinfo_42" vType="DEFAULT_VEHTYPE" speedFactor="1.09" vaporized=""/>
    <tripinfo id="69" depart="146.00" departLane="E25_0" departPos="5.10" departSpeed="0.00" departDelay="0.55" arrival="245.00" arrivalLane="-E15_0" arrivalPos="37.03" arrivalSpeed="13.26" duration="99.00" routeLength="1160.83" waitingTime="0.00" waitingCount="0" stopTime="0.00" timeLoss="16.45" rerouteNo="0" devices="tripinfo_69" vType="DEFAULT_VEHTYPE" speedFactor="1.02" vaporized=""/>
    <tripinfo id="24" depart="63.00" departLane="E2_0" departPos="5.10" departSpeed="0.00" departDelay="12.41" arrival="248.00" arrivalLane="-E9_1" arrivalPos="77.89" arrivalSpeed="10.64" duration="185.00" routeLength="1892.29" waitingTime="0.00" waitingCount="0" stopTime="0.00" timeLoss="16.94" rerouteNo="0" devices="tripinfo_24" vType="DEFAULT_VEHTYPE" speedFactor="0.83" vaporized=""/>
    <tripinfo id="77" depart="163.00" departLane="-E14_0" departPos="5.10" departSpeed="0.00" departDelay="0.68" arrival="252.00" arrivalLane="-E21_0" arrivalPos="59.62" arrivalSpeed="13.31" duration="89.00" routeLength="1052.31" waitingTime="0.00" waitingCount="0" stopTime="0.00" timeLoss="9.17" rerouteNo="0" devices="tripinfo_77" vType="DEFAULT_VEHTYPE" speedFactor="0.98" vaporized=""/>
    <tripinfo id="100" depart="213.00" departLane="E31_0" departPos="5.10" departSpeed="0.00" departDelay="2.20" arrival="255.00" arrivalLane="E30_0" arrivalPos="259.85" arrivalSpeed="5.28" duration="42.00" routeLength="450.00" waitingTime="0.00" waitingCount="0" stopTime="0.00" timeLoss="11.57" rerouteNo="0" devices="tripinfo_100" vType="DEFAULT_VEHTYPE" speedFactor="1.06" vaporized=""/>
    <tripinfo id="108" depart="228.00" departLane="E16_0" departPos="5.10" departSpeed="0.00" departDelay="0.33" arrival="256.00" arrivalLane="E22_0" arrivalPos="73.63" arrivalSpeed="13.50" duration="28.00" routeLength="243.74" waitingTime="0.00" waitingCount="0" stopTime="0.00" timeLoss="10.62" rerouteNo="0" devices="tripinfo_108" vType="DEFAULT_VEHTYPE" speedFactor="1.06" vaporized=""/>
    <tripinfo id="75" depart="160.00" departLane="E9_0" departPos="5.10" departSpeed="0.00" departDelay="1.90" arrival="257.00" arrivalLane="E20_0" arrivalPos="61.21" arrivalSpeed="13.09" duration="97.00" routeLength="1158.33" waitingTime="0.00" waitingCount="0" stopTime="0.00" timeLoss="10.41" rerouteNo="0" devices="tripinfo_75" vType="DEFAULT_VEHTYPE" speedFactor="0.98" vaporized=""/>
    <tripinfo id="12" depart="26.00" departLane="E31_0" departPos="5.10" departSpeed="0.00" departDelay="0.70" arrival="258.00" arrivalLane="-E30_0" arrivalPos="259.85" arrivalSpeed="13.59" duration="232.00" routeLength="2909.44" waitingTime="0.00" waitingCount="0" stopTime="0.00" timeLoss="26.53" rerouteNo="0" devices="tripinfo_12" vType="DEFAULT_VEHTYPE" speedFactor="1.05" vaporized=""/>
    <tripinfo id="72" depart="152.00" departLane="E10_0" departPos="5.10" departSpeed="0.00" departDelay="0.22" arrival="258.00" arrivalLane="-E20_0" arrivalPos="61.21" arrivalSpeed="12.05" duration="106.00" routeLength="1154.92" waitingTime="0.00" waitingCount="0" stopTime="0.00" timeLoss="14.76" rerouteNo="0" devices="tripinfo_72" vType="DEFAULT_VEHTYPE" speedFactor="0.94" vaporized=""/>
    <tripinfo id="84" depart="181.00" departLane="-E21_0" departPos="5.10" departSpeed="0.00" departDelay="3.93" arrival="258.00" arrivalLane="-E15_0" arrivalPos="37.03" arrivalSpeed="14.65" duration="77.00" routeLength="988.92" waitingTime="0.00" waitingCount="0" stopTime="0.00" timeLoss="14.34" rerouteNo="0" devices="tripinfo_84" vType="DEFAULT_VEHTYPE" speedFactor="1.15" vaporized=""/>
    <tripinfo id="111" depart="240.00" departLane="E15_0" departPos="5.10" departSpeed="0.00" departDelay="6.01" arrival="261.00" arrivalLane="E23_0" arrivalPos="160.62" arrivalSpeed="11.73" duration="21.00" routeLength="203.00" waitingTime="0.00" waitingCount="0" stopTime="0.00" timeLoss="3.22" rerouteNo="0" devices="tripinfo_111" vType="DEFAULT_VEHTYPE" speedFactor="0.87" vaporized=""/>
    <tripinfo id="15" depart="32.00" departLane="E27_0" departPos="5.10" departSpeed="0.00" departDelay="0.38" arrival="263.00" arrivalLane="E23_0" arrivalPos="160.62" arrivalSpeed="12.59" duration="231.00" routeLength="2515.37" waitingTime="0.00" waitingCount="0" stopTime="0.00" timeLoss="31.17" rerouteNo="0" devices="tripinfo_15" vType="DEFAULT_VEHTYPE" speedFactor="0.93" vaporized=""/>
    <tripinfo id="71" depart="150.00" departLane="-E22_0" departPos="5.10" departSpeed="0.00" departDelay="0.33" arrival="266.00" arrivalLane="E29_0" arrivalPos="107.39" arrivalSpeed="12.59" duration="116.00" routeLength="1357.92" waitingTime="0.00" waitingCount="0" stopTime="0.00" timeLoss="12.93" rerouteNo="0" devices="tripinfo_71" vType="DEFAULT_VEHTYPE" speedFactor="0.97" vaporized=""/>
    <tripinfo id="76" depart="161.00" departLane="E11_0" departPos="5.10" departSpeed="0.00" departDelay="0.79" arrival="267.00" arrivalLane="E15_1" arrivalPos="37.03" arrivalSpeed="13.58" duration="106.00" routeLength="1283.36" waitingTime="0.00" waitingCount="0" stopTime="0.00" timeLoss="15.23" rerouteNo="0" devices="tripinfo_76" vType="DEFAULT_VEHTYPE" speedFactor="1.03" vaporized=""/>
    <tripinfo id="86" depart="182.00" departLane="E12_0" departPos="5.10" departSpeed="0.00" departDelay="0.71" arrival="270.00" arrivalLane="E25_0" arrivalPos="49.89" arrivalSpeed="12.86" duration="88.00" routeLength="1042.07" waitingTime="0.00" waitingCount="0" stopTime="0.00" timeLoss="11.64" rerouteNo="0" devices="tripinfo_86" vType="DEFAULT_VEHTYPE" speedFactor="1.00" vaporized=""/>
    <tripinfo id="90" depart="191.00" departLane="E23_0" departPos="5.10" departSpeed="0.00" departDelay="1.28" arrival="272.00" arrivalLane="E21_1" arrivalPos="59.62" arrivalSpeed="13.91" duration="81.00" routeLength="960.24" waitingTime="0.00" waitingCount="0" stopTime="0.00" timeLoss="11.33" rerouteNo="0" devices="tripinfo_90" vType="DEFAULT_VEHTYPE" speedFactor="1.02" vaporized=""/>
    <tripinfo id="78" depart="165.00" departLane="-E30_0" departPos="5.10" departSpeed="0.00" departDelay="0.57" arrival="273.00" arrivalLane="E18_0" arrivalPos="88.18" arrivalSpeed="13.24" duration="108.00" routeLength="1274.05" waitingTime="0.00" waitingCount="0" stopTime="0.00" timeLoss="15.10" rerouteNo="0" devices="tripinfo_78" vType="DEFAULT_VEHTYPE" speedFactor="1.01" vaporized=""/>
    <tripinfo id="93" depart="197.00" departLane="E29_0" departPos="5.10" departSpeed="0.00" departDelay="0.95" arrival="277.00" arrivalLane="-E22_0" arrivalPos="73.63" arrivalSpeed="12.63" duration="80.00" routeLength="751.27" waitingTime="0.00" waitingCount="0" stopTime="0.00" timeLoss="19.03" rerouteNo="0" devices="tripinfo_93" vType="DEFAULT_VEHTYPE" speedFactor="0.92" vaporized=""/>
    <tripinfo id="109" depart="230.00" departLane="-E2_0" departPos="5.10" departSpeed="0.00" departDelay="0.22" arrival="277.00" arrivalLane="-E23_0" arrivalPos="160.62" arrivalSpeed="13.11" duration="47.00" routeLength="500.68" waitingTime="0.00" waitingCount="0" stopTime="0.00" timeLoss="8.58" rerouteNo="0" devices="tripinfo_109" vType="DEFAULT_VEHTYPE" speedFactor="0.96" vaporized=""/>
    <tripinfo id="89" depart="188.00" departLane="E10_0" departPos="5.10" departSpeed="0.00" departDelay="0.39" arrival="278.00" arrivalLane="E12_0" arrivalPos="113.47" arrivalSpeed="14.19" duration="90.00" routeLength="1100.49" waitingTime="0.00" waitingCount="0" stopTime="0.00" timeLoss="11.10" rerouteNo="0" devices="tripinfo_89" vType="DEFAULT_VEHTYPE" speedFactor="1.02" vaporized=""/>
    <tripinfo id="127" depart="268.00" departLane="E9_0" departPos="5.10" departSpeed="0.00" departDelay="0.28" arrival="278.00" arrivalLane="E9_0" arrivalPos="77.89" arrivalSpeed="10.51" duration="10.00" routeLength="72.79" waitingTime="0.00" waitingCount="0" stopTime="0.00" timeLoss="2.72" rerouteNo="0" devices="tripinfo_127" vType="DEFAULT_VEHTYPE" speedFactor="0.82" vaporized=""/>
    <tripinfo id="18" depart="38.00" departLane="E28_0" departPos="5.10" departSpeed="0.00" departDelay="0.06" arrival="279.00" arrivalLane="E2_0" arrivalPos="348.03" arrivalSpeed="6.66" duration="241.00" routeLength="2596.18" waitingTime="0.00" waitingCount="0" stopTime="0.00" timeLoss="37.68" rerouteNo="0" devices="tripinfo_18" vType="DEFAULT_VEHTYPE" speedFactor="0.94" vaporized=""/>
    <tripinfo id="96" depart="212.00" departLane="-E22_0" departPos="5.10" departSpeed="0.00" departDelay="9.63" arrival="281.00" arrivalLane="E30_0" arrivalPos="259.85" arrivalSpeed="6.76" duration="69.00" routeLength="707.13" waitingTime="0.00" waitingCount="0" stopTime="0.00" timeLoss="18.05" rerouteNo="0" devices="tripinfo_96" vType="DEFAULT_VEHTYPE" speedFactor="1.01" vaporized=""/>
    <tripinfo id="83" depart="178.00" departLane="-E21_0" departPos="5.10" departSpeed="0.00" departDelay="3.03" arrival="282.00" arrivalLane="E21_1" arrivalPos="59.62" arrivalSpeed="13.09" duration="104.00" routeLength="1196.75" waitingTime="0.00" waitingCount="0" stopTime="0.00" timeLoss="12.86" rerouteNo="0" devices="tripinfo_83" vType="DEFAULT_VEHTYPE" speedFactor="0.97" vaporized=""/>
    <tripinfo id="14" depart="30.00" departLane="E28_0" departPos="5.10" departSpeed="0.00" departDelay="0.49" arrival="294.00" arrivalLane="E18_0" arrivalPos="88.18" arrivalSpeed="8.32" duration="264.00" routeLength="2857.01" waitingTime="0.00" waitingCount="0" stopTime="0.00" timeLoss="52.26" rerouteNo="0" devices="tripinfo_14" vType="DEFAULT_VEHTYPE" speedFactor="0.99" vaporized=""/>
    <tripinfo id="53" depart="113.00" departLane="-E14_0" departPos="5.10" departSpeed="0.00" departDelay="1.27" arrival="294.00" arrivalLane="E11_0" arrivalPos="73.15" arrivalSpeed="14.27" duration="181.00" routeLength="1999.74" waitingTime="0.00" waitingCount="0" stopTime="0.00" timeLoss="45.63" rerouteNo="0" devices="tripinfo_53" vType="DEFAULT_VEHTYPE" speedFactor="1.10" vaporized=""/>
    <tripinfo id="87" depart="184.00" departLane="E27_0" departPos="5.10" departSpeed="0.00" departDelay="0.60" arrival="302.00" arrivalLane="-E20_0" arrivalPos="61.21" arrivalSpeed="13.67" duration="118.00" routeLength="1361.50" waitingTime="0.00" waitingCount="0" stopTime="0.00" timeLoss="22.32" rerouteNo="0" devices="tripinfo_87" vType="DEFAULT_VEHTYPE" speedFactor="1.04" vaporized=""/>