<?xml version="1.0" encoding="UTF-8"?>

<!-- generated on 2022-11-14 23:09:36 by Eclipse SUMO sumo Version 1.13.0
<configuration xmlns:xsi="http://www.w3.org/2001/XMLSchema-instance" xsi:noNamespaceSchemaLocation="http://sumo.dlr.de/xsd/sumoConfiguration.xsd">

    <input>
        <net-file value="..\sumo\demoAAA.net.xml"/>
        <route-files value="..\sumo\trips.trips.xml"/>
        <additional-files value="..\sumo\demoAAA.add.xml"/>
    </input>

    <output>
        <tripinfo-output value="..\sumo\_tripinfo.xml"/>
    </output>

    <traci_server>
        <remote-port value="15766"/>
    </traci_server>

</configuration>
-->

<tripinfos xmlns:xsi="http://www.w3.org/2001/XMLSchema-instance" xsi:noNamespaceSchemaLocation="http://sumo.dlr.de/xsd/tripinfo_file.xsd">
    <tripinfo id="13" depart="13.00" departLane="-E12_0" departPos="5.10" departSpeed="0.00" departDelay="0.00" arrival="24.00" arrivalLane="-E12_0" arrivalPos="113.47" arrivalSpeed="15.59" duration="11.00" routeLength="108.37" waitingTime="0.00" waitingCount="0" stopTime="0.00" timeLoss="3.74" rerouteNo="1" devices="tripinfo_13 routing_13" vType="DEFAULT_VEHTYPE" speedFactor="1.12" vaporized=""/>
    <tripinfo id="18" depart="18.00" departLane="E31_0" departPos="5.10" departSpeed="0.00" departDelay="0.00" arrival="37.00" arrivalLane="E21_0" arrivalPos="64.57" arrivalSpeed="12.05" duration="19.00" routeLength="182.99" waitingTime="0.00" waitingCount="0" stopTime="0.00" timeLoss="4.03" rerouteNo="0" devices="tripinfo_18 routing_18" vType="DEFAULT_VEHTYPE" speedFactor="0.94" vaporized=""/>
    <tripinfo id="19" depart="19.00" departLane="E33_0" departPos="5.10" departSpeed="0.00" departDelay="0.00" arrival="45.00" arrivalLane="E18_0" arrivalPos="88.18" arrivalSpeed="15.80" duration="26.00" routeLength="324.87" waitingTime="0.00" waitingCount="0" stopTime="0.00" timeLoss="5.53" rerouteNo="1" devices="tripinfo_19 routing_19" vType="DEFAULT_VEHTYPE" speedFactor="1.16" vaporized=""/>
    <tripinfo id="3" depart="3.00" departLane="E4_0" departPos="5.10" departSpeed="0.00" departDelay="0.00" arrival="49.00" arrivalLane="-E12_0" arrivalPos="113.47" arrivalSpeed="13.80" duration="46.00" routeLength="572.34" waitingTime="0.00" waitingCount="0" stopTime="0.00" timeLoss="7.27" rerouteNo="1" devices="tripinfo_3 routing_3" vType="DEFAULT_VEHTYPE" speedFactor="1.08" vaporized=""/>
    <tripinfo id="12" depart="12.00" departLane="E7_0" departPos="5.10" departSpeed="0.00" departDelay="0.00" arrival="59.00" arrivalLane="-E33_0" arrivalPos="70.73" arrivalSpeed="14.37" duration="47.00" routeLength="496.51" waitingTime="0.00" waitingCount="0" stopTime="0.00" timeLoss="12.47" rerouteNo="1" devices="tripinfo_12 routing_12" vType="DEFAULT_VEHTYPE" speedFactor="1.05" vaporized=""/>
    <tripinfo id="39" depart="39.00" departLane="-E27_0" departPos="5.10" departSpeed="0.00" departDelay="0.00" arrival="62.00" arrivalLane="-E26_0" arrivalPos="110.14" arrivalSpeed="13.01" duration="23.00" routeLength="218.21" waitingTime="0.00" waitingCount="0" stopTime="0.00" timeLoss="6.67" rerouteNo="0" devices="tripinfo_39 routing_39" vType="DEFAULT_VEHTYPE" speedFactor="1.01" vaporized=""/>
    <tripinfo id="47" depart="47.00" departLane="-E11_0" departPos="5.10" departSpeed="0.00" departDelay="0.00" arrival="62.00" arrivalLane="-E9_0" arrivalPos="77.89" arrivalSpeed="14.01" duration="15.00" routeLength="163.49" waitingTime="0.00" waitingCount="0" stopTime="0.00" timeLoss="3.29" rerouteNo="0" devices="tripinfo_47 routing_47" vType="DEFAULT_VEHTYPE" speedFactor="1.03" vaporized=""/>
    <tripinfo id="41" depart="41.00" departLane="E20_0" departPos="5.10" departSpeed="0.00" departDelay="0.00" arrival="75.00" arrivalLane="E5_0" arrivalPos="116.57" arrivalSpeed="13.51" duration="34.00" routeLength="354.08" waitingTime="0.00" waitingCount="0" stopTime="0.00" timeLoss="6.42" rerouteNo="1" devices="tripinfo_41 routing_41" vType="DEFAULT_VEHTYPE" speedFactor="0.99" vaporized=""/>
    <tripinfo id="22" depart="22.00" departLane="-E11_0" departPos="5.10" departSpeed="0.00" departDelay="0.00" arrival="85.00" arrivalLane="-E26_0" arrivalPos="110.14" arrivalSpeed="7.56" duration="63.00" routeLength="629.65" waitingTime="0.00" waitingCount="0" stopTime="0.00" timeLoss="16.01" rerouteNo="1" devices="tripinfo_22 routing_22" vType="DEFAULT_VEHTYPE" speedFactor="0.97" vaporized=""/>
    <tripinfo id="20" depart="20.00" departLane="E26_0" departPos="5.10" departSpeed="0.00" departDelay="0.00" arrival="88.00" arrivalLane="-E10_0" arrivalPos="78.75" arrivalSpeed="12.04" duration="68.00" routeLength="734.20" waitingTime="0.00" waitingCount="0" stopTime="0.00" timeLoss="13.94" rerouteNo="1" devices="tripinfo_20 routing_20" vType="DEFAULT_VEHTYPE" speedFactor="1.02" vaporized=""/>
    <tripinfo id="40" depart="40.00" departLane="E16_0" departPos="5.10" departSpeed="0.00" departDelay="0.00" arrival="88.00" arrivalLane="-E27_0" arrivalPos="111.32" arrivalSpeed="4.54" duration="48.00" routeLength="520.27" waitingTime="0.00" waitingCount="0" stopTime="0.00" timeLoss="16.03" rerouteNo="1" devices="tripinfo_40 routing_40" vType="DEFAULT_VEHTYPE" speedFactor="1.17" vaporized=""/>
    <tripinfo id="9" depart="9.00" departLane="E30_0" departPos="5.10" departSpeed="0.00" departDelay="0.00" arrival="95.00" arrivalLane="-E0_0" arrivalPos="221.31" arrivalSpeed="10.88" duration="86.00" routeLength="858.83" waitingTime="0.00" waitingCount="0" stopTime="0.00" timeLoss="11.94" rerouteNo="1" devices="tripinfo_9 routing_9" vType="DEFAULT_VEHTYPE" speedFactor="0.86" vaporized=""/>
    <tripinfo id="17" depart="17.00" departLane="-E9_0" departPos="5.10" departSpeed="0.00" departDelay="0.00" arrival="101.00" arrivalLane="E16_0" arrivalPos="75.70" arrivalSpeed="12.08" duration="84.00" routeLength="832.48" waitingTime="0.00" waitingCount="0" stopTime="0.00" timeLoss="18.86" rerouteNo="1" devices="tripinfo_17 routing_17" vType="DEFAULT_VEHTYPE" speedFactor="0.94" vaporized=""/>
    <tripinfo id="11" depart="11.00" departLane="-E33_0" departPos="5.10" departSpeed="0.00" departDelay="0.00" arrival="103.00" arrivalLane="-E20_0" arrivalPos="184.13" arrivalSpeed="13.85" duration="92.00" routeLength="965.66" waitingTime="0.00" waitingCount="0" stopTime="0.00" timeLoss="23.85" rerouteNo="1" devices="tripinfo_11 routing_11" vType="DEFAULT_VEHTYPE" speedFactor="1.03" vaporized=""/>
    <tripinfo id="27" depart="27.00" departLane="E23_0" departPos="5.10" departSpeed="0.00" departDelay="0.00" arrival="120.00" arrivalLane="E21_1" arrivalPos="64.57" arrivalSpeed="12.21" duration="93.00" routeLength="1003.94" waitingTime="0.00" waitingCount="0" stopTime="0.00" timeLoss="14.92" rerouteNo="1" devices="tripinfo_27 routing_27" vType="DEFAULT_VEHTYPE" speedFactor="0.95" vaporized=""/>
    <tripinfo id="6" depart="6.00" departLane="-E1_0" departPos="5.10" departSpeed="0.00" departDelay="0.00" arrival="122.00" arrivalLane="-E22_0" arrivalPos="74.59" arrivalSpeed="13.31" duration="116.00" routeLength="1420.63" waitingTime="0.00" waitingCount="0" stopTime="0.00" timeLoss="15.79" rerouteNo="1" devices="tripinfo_6 routing_6" vType="DEFAULT_VEHTYPE" speedFactor="1.05" vaporized=""/>
    <tripinfo id="36" depart="36.00" departLane="E4_0" departPos="5.10" departSpeed="0.00" departDelay="0.00" arrival="126.00" arrivalLane="-E32_0" arrivalPos="90.85" arrivalSpeed="12.33" duration="90.00" routeLength="989.64" waitingTime="0.00" waitingCount="0" stopTime="0.00" timeLoss="12.16" rerouteNo="1" devices="tripinfo_36 routing_36" vType="DEFAULT_VEHTYPE" speedFactor="0.93" vaporized=""/>
    <tripinfo id="44" depart="44.00" departLane="-E12_0" departPos="5.10" departSpeed="0.00" departDelay="0.00" arrival="132.00" arrivalLane="-E10_1" arrivalPos="78.75" arrivalSpeed="15.85" duration="88.00" routeLength="1126.30" waitingTime="0.00" waitingCount="0" stopTime="0.00" timeLoss="18.87" rerouteNo="1" devices="tripinfo_44 routing_44" vType="DEFAULT_VEHTYPE" speedFactor="1.18" vaporized=""/>
    <tripinfo id="116" depart="116.00" departLane="E20_0" departPos="5.10" departSpeed="0.00" departDelay="0.00" arrival="139.00" arrivalLane="E25_0" arrivalPos="48.97" arrivalSpeed="14.63" duration="23.00" routeLength="237.41" waitingTime="0.00" waitingCount="0" stopTime="0.00" timeLoss="5.81" rerouteNo="0" devices="tripinfo_116 routing_116" vType="DEFAULT_VEHTYPE" speedFactor="1.06" vaporized=""/>
    <tripinfo id="10" depart="12.00" departLane="E30_0" departPos="5.10" departSpeed="0.00" departDelay="2.00" arrival="151.00" arrivalLane="E26_0" arrivalPos="110.14" arrivalSpeed="9.02" duration="139.00" routeLength="1560.18" waitingTime="0.00" waitingCount="0" stopTime="0.00" timeLoss="35.31" rerouteNo="1" devices="tripinfo_10 routing_10" vType="DEFAULT_VEHTYPE" speedFactor="1.09" vaporized=""/>
    <tripinfo id="14" depart="14.00" departLane="E32_0" departPos="5.10" departSpeed="0.00" departDelay="0.00" arrival="153.00" arrivalLane="E20_0" arrivalPos="184.13" arrivalSpeed="13.37" duration="139.00" routeLength="1673.28" waitingTime="0.00" waitingCount="0" stopTime="0.00" timeLoss="16.32" rerouteNo="1" devices="tripinfo_14 routing_14" vType="DEFAULT_VEHTYPE" speedFactor="0.99" vaporized=""/>
    <tripinfo id="119" depart="119.00" departLane="E20_0" departPos="5.10" departSpeed="0.00" departDelay="0.00" arrival="160.00" arrivalLane="E21_0" arrivalPos="64.57" arrivalSpeed="13.53" duration="41.00" routeLength="469.31" waitingTime="0.00" waitingCount="0" stopTime="0.00" timeLoss="6.55" rerouteNo="1" devices="tripinfo_119 routing_119" vType="DEFAULT_VEHTYPE" speedFactor="1.03" vaporized=""/>
    <tripinfo id="15" depart="15.00" departLane="E30_0" departPos="5.10" departSpeed="0.00" departDelay="0.00" arrival="163.00" arrivalLane="E28_0" arrivalPos="36.43" arrivalSpeed="12.38" duration="148.00" routeLength="1480.34" waitingTime="0.00" waitingCount="0" stopTime="0.00" timeLoss="30.41" rerouteNo="1" devices="tripinfo_15 routing_15" vType="DEFAULT_VEHTYPE" speedFactor="0.93" vaporized=""/>
    <tripinfo id="117" depart="125.00" departLane="-E26_0" departPos="5.10" departSpeed="0.00" departDelay="8.00" arrival="163.00" arrivalLane="-E14_0" arrivalPos="71.43" arrivalSpeed="12.69" duration="38.00" routeLength="395.38" waitingTime="0.00" waitingCount="0" stopTime="0.00" timeLoss="7.13" rerouteNo="1" devices="tripinfo_117 routing_117" vType="DEFAULT_VEHTYPE" speedFactor="0.96" vaporized=""/>
    <tripinfo id="97" depart="97.00" departLane="E10_0" departPos="5.10" departSpeed="0.00" departDelay="0.00" arrival="166.00" arrivalLane="E33_0" arrivalPos="70.73" arrivalSpeed="13.24" duration="69.00" routeLength="770.69" waitingTime="0.00" waitingCount="0" stopTime="0.00" timeLoss="11.90" rerouteNo="1" devices="tripinfo_97 routing_97" vType="DEFAULT_VEHTYPE" speedFactor="1.00" vaporized=""/>
    <tripinfo id="101" depart="106.00" departLane="E32_0" departPos="5.10" departSpeed="0.00" departDelay="5.00" arrival="169.00" arrivalLane="-E20_0" arrivalPos="184.13" arrivalSpeed="13.52" duration="63.00" routeLength="712.50" waitingTime="0.00" waitingCount="0" stopTime="0.00" timeLoss="11.66" rerouteNo="1" devices="tripinfo_101 routing_101" vType="DEFAULT_VEHTYPE" speedFactor="1.02" vaporized=""/>
    <tripinfo id="113" depart="119.00" departLane="E14_0" departPos="5.10" departSpeed="0.00" departDelay="6.00" arrival="175.00" arrivalLane="E32_0" arrivalPos="90.85" arrivalSpeed="13.25" duration="56.00" routeLength="609.31" waitingTime="0.00" waitingCount="0" stopTime="0.00" timeLoss="11.81" rerouteNo="1" devices="tripinfo_113 routing_113" vType="DEFAULT_VEHTYPE" speedFactor="1.02" vaporized=""/>
    <tripinfo id="43" depart="43.00" departLane="E9_0" departPos="5.10" departSpeed="0.00" departDelay="0.00" arrival="178.00" arrivalLane="E14_0" arrivalPos="71.43" arrivalSpeed="12.54" duration="135.00" routeLength="1597.47" waitingTime="0.00" waitingCount="0" stopTime="0.00" timeLoss="15.89" rerouteNo="1" devices="tripinfo_43 routing_43" vType="DEFAULT_VEHTYPE" speedFactor="0.97" vaporized=""/>
    <tripinfo id="45" depart="45.00" departLane="-E14_0" departPos="5.10" departSpeed="0.00" departDelay="0.00" arrival="187.00" arrivalLane="E22_0" arrivalPos="74.59" arrivalSpeed="14.03" duration="142.00" routeLength="1693.64" waitingTime="0.00" waitingCount="0" stopTime="0.00" timeLoss="29.51" rerouteNo="1" devices="tripinfo_45 routing_45" vType="DEFAULT_VEHTYPE" speedFactor="1.10" vaporized=""/>
    <tripinfo id="1" depart="1.00" departLane="-E3_0" departPos="5.10" departSpeed="0.00" departDelay="0.00" arrival="188.00" arrivalLane="-E23_0" arrivalPos="161.76" arrivalSpeed="12.05" duration="187.00" routeLength="1903.88" waitingTime="0.00" waitingCount="0" stopTime="0.00" timeLoss="38.46" rerouteNo="1" devices="tripinfo_1 routing_1" vType="DEFAULT_VEHTYPE" speedFactor="0.94" vaporized=""/>
    <tripinfo id="48" depart="48.00" departLane="E9_0" departPos="5.10" departSpeed="0.00" departDelay="0.00" arrival="190.00" arrivalLane="E15_0" arrivalPos="37.03" arrivalSpeed="12.93" duration="142.00" routeLength="1580.36" waitingTime="0.00" waitingCount="0" stopTime="0.00" timeLoss="19.93" rerouteNo="1" devices="tripinfo_48 routing_48" vType="DEFAULT_VEHTYPE" speedFactor="0.96" vaporized=""/>
    <tripinfo id="146" depart="155.00" departLane="E22_0" departPos="5.10" departSpeed="0.00" departDelay="9.00" arrival="194.00" arrivalLane="-E27_0" arrivalPos="111.32" arrivalSpeed="7.01" duration="39.00" routeLength="345.06" waitingTime="0.00" waitingCount="0" stopTime="0.00" timeLoss="14.11" rerouteNo="1" devices="tripinfo_146 routing_146" vType="DEFAULT_VEHTYPE" speedFactor="1.02" vaporized=""/>
    <tripinfo id="98" depart="98.00" departLane="E16_0" departPos="5.10" departSpeed="0.00" departDelay="0.00" arrival="196.00" arrivalLane="-E10_1" arrivalPos="78.75" arrivalSpeed="13.12" duration="98.00" routeLength="1008.97" waitingTime="0.00" waitingCount="0" stopTime="0.00" timeLoss="24.21" rerouteNo="1" devices="tripinfo_98 routing_98" vType="DEFAULT_VEHTYPE" speedFactor="1.00" vaporized=""/>
    <tripinfo id="42" depart="42.00" departLane="E0_0" departPos="5.10" departSpeed="0.00" departDelay="0.00" arrival="207.00" arrivalLane="-E23_0" arrivalPos="161.76" arrivalSpeed="13.98" duration="165.00" routeLength="1868.52" waitingTime="0.00" waitingCount="0" stopTime="0.00" timeLoss="30.28" rerouteNo="1" devices="tripinfo_42 routing_42" vType="DEFAULT_VEHTYPE" speedFactor="1.02" vaporized=""/>
    <tripinfo id="109" depart="109.00" departLane="-E20_0" departPos="5.10" departSpeed="0.00" departDelay="0.00" arrival="210.00" arrivalLane="-E30_0" arrivalPos="270.36" arrivalSpeed="12.21" duration="101.00" routeLength="1064.81" waitingTime="0.00" waitingCount="0" stopTime="0.00" timeLoss="14.20" rerouteNo="1" devices="tripinfo_109 routing_109" vType="DEFAULT_VEHTYPE" speedFactor="0.91" vaporized=""/>
    <tripinfo id="105" depart="105.00" departLane="-E27_0" departPos="5.10" departSpeed="0.00" departDelay="0.00" arrival="214.00" arrivalLane="E3_0" arrivalPos="118.34" arrivalSpeed="14.01" duration="109.00" routeLength="1302.11" waitingTime="0.00" waitingCount="0" stopTime="0.00" timeLoss="14.93" rerouteNo="1" devices="tripinfo_105 routing_105" vType="DEFAULT_VEHTYPE" speedFactor="1.02" vaporized=""/>
    <tripinfo id="204" depart="208.00" departLane="E22_0" departPos="5.10" departSpeed="0.00" departDelay="4.00" arrival="222.00" arrivalLane="-E33_0" arrivalPos="70.73" arrivalSpeed="13.79" duration="14.00" routeLength="140.88" waitingTime="0.00" waitingCount="0" stopTime="0.00" timeLoss="3.89" rerouteNo="0" devices="tripinfo_204 routing_204" vType="DEFAULT_VEHTYPE" speedFactor="1.07" vaporized=""/>
    <tripinfo id="4" depart="4.00" departLane="E1_0" departPos="5.10" departSpeed="0.00" departDelay="0.00" arrival="223.00" arrivalLane="-E1_0" arrivalPos="141.36" arrivalSpeed="13.45" duration="219.00" routeLength="2547.44" waitingTime="0.00" waitingCount="0" stopTime="0.00" timeLoss="37.88" rerouteNo="1" devices="tripinfo_4 routing_4" vType="DEFAULT_VEHTYPE" speedFactor="1.03" vaporized=""/>
    <tripinfo id="94" depart="94.00" departLane="-E22_0" departPos="5.10" departSpeed="0.00" departDelay="0.00" arrival="224.00" arrivalLane="E10_1" arrivalPos="78.75" arrivalSpeed="15.64" duration="130.00" routeLength="1600.96" waitingTime="0.00" waitingCount="0" stopTime="0.00" timeLoss="30.25" rerouteNo="1" devices="tripinfo_94 routing_94" vType="DEFAULT_VEHTYPE" speedFactor="1.17" vaporized=""/>
    <tripinfo id="214" depart="214.00" departLane="E29_0" departPos="5.10" departSpeed="0.00" departDelay="0.00" arrival="226.00" arrivalLane="E29_0" arrivalPos="107.39" arrivalSpeed="12.34" duration="12.00" routeLength="102.29" waitingTime="0.00" waitingCount="0" stopTime="0.00" timeLoss="3.18" rerouteNo="1" devices="tripinfo_214 routing_214" vType="DEFAULT_VEHTYPE" speedFactor="0.92" vaporized=""/>
    <tripinfo id="88" depart="88.00" departLane="-E12_0" departPos="5.10" departSpeed="0.00" departDelay="0.00" arrival="229.00" arrivalLane="E1_0" arrivalPos="141.36" arrivalSpeed="7.34" duration="141.00" routeLength="1709.13" waitingTime="0.00" waitingCount="0" stopTime="0.00" timeLoss="27.39" rerouteNo="1" devices="tripinfo_88 routing_88" vType="DEFAULT_VEHTYPE" speedFactor="1.09" vaporized=""/>
    <tripinfo id="92" depart="94.00" departLane="E0_0" departPos="5.10" departSpeed="0.00" departDelay="2.00" arrival="230.00" arrivalLane="-E33_0" arrivalPos="70.73" arrivalSpeed="10.74" duration="136.00" routeLength="1389.04" waitingTime="0.00" waitingCount="0" stopTime="0.00" timeLoss="16.62" rerouteNo="1" devices="tripinfo_92 routing_92" vType="DEFAULT_VEHTYPE" speedFactor="0.85" vaporized=""/>
    <tripinfo id="25" depart="25.00" departLane="-E4_0" departPos="5.10" departSpeed="0.00" departDelay="0.00" arrival="233.00" arrivalLane="-E23_0" arrivalPos="161.76" arrivalSpeed="11.68" duration="208.00" routeLength="2011.91" waitingTime="0.00" waitingCount="0" stopTime="0.00" timeLoss="37.33" rerouteNo="1" devices="tripinfo_25 routing_25" vType="DEFAULT_VEHTYPE" speedFactor="0.87" vaporized=""/>
    <tripinfo id="37" depart="37.00" departLane="E23_0" departPos="5.10" departSpeed="0.00" departDelay="0.00" arrival="235.00" arrivalLane="-E9_1" arrivalPos="77.89" arrivalSpeed="16.28" duration="198.00" routeLength="2362.86" waitingTime="0.00" waitingCount="0" stopTime="0.00" timeLoss="51.04" rerouteNo="1" devices="tripinfo_37 routing_37" vType="DEFAULT_VEHTYPE" speedFactor="1.18" vaporized=""/>
    <tripinfo id="185" depart="188.00" departLane="E15_0" departPos="5.10" departSpeed="0.00" departDelay="3.00" arrival="235.00" arrivalLane="E27_0" arrivalPos="111.32" arrivalSpeed="13.26" duration="47.00" routeLength="435.66" waitingTime="0.00" waitingCount="0" stopTime="0.00" timeLoss="14.53" rerouteNo="1" devices="tripinfo_185 routing_185" vType="DEFAULT_VEHTYPE" speedFactor="1.00" vaporized=""/>
    <tripinfo id="118" depart="130.00" departLane="E4_0" departPos="5.10" departSpeed="0.00" departDelay="12.00" arrival="236.00" arrivalLane="-E26_0" arrivalPos="110.14" arrivalSpeed="12.97" duration="106.00" routeLength="1213.56" waitingTime="0.00" waitingCount="0" stopTime="0.00" timeLoss="15.93" rerouteNo="1" devices="tripinfo_118 routing_118" vType="DEFAULT_VEHTYPE" speedFactor="0.98" vaporized=""/>
    <tripinfo id="91" depart="91.00" departLane="E9_0" departPos="5.10" departSpeed="0.00" departDelay="0.00" arrival="245.00" arrivalLane="-E12_0" arrivalPos="113.47" arrivalSpeed="11.07" duration="154.00" routeLength="1542.25" waitingTime="0.00" waitingCount="0" stopTime="0.00" timeLoss="24.24" rerouteNo="1" devices="tripinfo_91 routing_91" vType="DEFAULT_VEHTYPE" speedFactor="0.88" vaporized=""/>
    <tripinfo id="147" depart="149.00" departLane="E28_0" departPos="5.10" departSpeed="0.00" departDelay="2.00" arrival="247.00" arrivalLane="E16_0" arrivalPos="75.70" arrivalSpeed="12.18" duration="98.00" routeLength="965.39" waitingTime="0.00" waitingCount="0" stopTime="0.00" timeLoss="23.62" rerouteNo="1" devices="tripinfo_147 routing_147" vType="DEFAULT_VEHTYPE" speedFactor="0.97" vaporized=""/>
    <tripinfo id="106" depart="106.00" departLane="E10_0" departPos="5.10" departSpeed="0.00" departDelay="0.00" arrival="251.00" arrivalLane="E1_0" arrivalPos="141.36" arrivalSpeed="12.53" duration="145.00" routeLength="1698.20" waitingTime="0.00" waitingCount="0" stopTime="0.00" timeLoss="18.83" rerouteNo="1" devices="tripinfo_106 routing_106" vType="DEFAULT_VEHTYPE" speedFactor="0.99" vaporized=""/>
    <tripinfo id="228" depart="237.00" departLane="E29_0" departPos="5.10" departSpeed="0.00" departDelay="9.00" arrival="254.00" arrivalLane="E15_0" arrivalPos="37.03" arrivalSpeed="13.27" duration="17.00" routeLength="147.06" waitingTime="0.00" waitingCount="0" stopTime="0.00" timeLoss="5.63" rerouteNo="0" devices="tripinfo_228 routing_228" vType="DEFAULT_VEHTYPE" speedFactor="1.01" vaporized=""/>
    <tripinfo id="184" depart="186.00" departLane="-E0_0" departPos="5.10" departSpeed="0.00" departDelay="2.00" arrival="256.00" arrivalLane="E6_0" arrivalPos="72.42" arrivalSpeed="5.35" duration="70.00" routeLength="658.67" waitingTime="0.00" waitingCount="0" stopTime="0.00" timeLoss="20.41" rerouteNo="1" devices="tripinfo_184 routing_184" vType="DEFAULT_VEHTYPE" speedFactor="0.98" vaporized=""/>
    <tripinfo id="87" depart="87.00" departLane="E30_0" departPos="5.10" departSpeed="0.00" departDelay="0.00" arrival="257.00" arrivalLane="-E22_0" arrivalPos="74.59" arrivalSpeed="12.75" duration="170.00" routeLength="1921.23" waitingTime="0.00" waitingCount="0" stopTime="0.00" timeLoss="36.27" rerouteNo="1" devices="tripinfo_87 routing_87" vType="DEFAULT_VEHTYPE" speedFactor="1.04" vaporized=""/>
    <tripinfo id="16" depart="16.00" departLane="E15_0" departPos="5.10" departSpeed="0.00" departDelay="0.00" arrival="262.00" arrivalLane="E8_0" arrivalPos="81.76" arrivalSpeed="12.06" duration="246.00" routeLength="2506.60" waitingTime="0.00" waitingCount="0" stopTime="0.00" timeLoss="36.93" rerouteNo="1" devices="tripinfo_16 routing_16" vType="DEFAULT_VEHTYPE" speedFactor="0.88" vaporized=""/>
    <tripinfo id="89" depart="95.00" departLane="E1_0" departPos="5.10" departSpeed="0.00" departDelay="6.00" arrival="264.00" arrivalLane="E11_0" arrivalPos="73.15" arrivalSpeed="12.86" duration="169.00" routeLength="1703.51" waitingTime="0.00" waitingCount="0" stopTime="0.00" timeLoss="43.28" rerouteNo="1" devices="tripinfo_89 routing_89" vType="DEFAULT_VEHTYPE" speedFactor="1.00" vaporized=""/>
    <tripinfo id="90" depart="92.00" departLane="E27_0" departPos="5.10" departSpeed="0.00" departDelay="2.00" arrival="264.00" arrivalLane="E25_0" arrivalPos="48.97" arrivalSpeed="12.42" duration="172.00" routeLength="1844.82" waitingTime="0.00" waitingCount="0" stopTime="0.00" timeLoss="22.95" rerouteNo="1" devices="tripinfo_90 routing_90" vType="DEFAULT_VEHTYPE" speedFactor="0.90" vaporized=""/>
    <tripinfo id="193" depart="195.00" departLane="-E15_0" departPos="5.10" departSpeed="0.00" departDelay="2.00" arrival="267.00" arrivalLane="E1_0" arrivalPos="141.36" arrivalSpeed="8.84" duration="72.00" routeLength="782.17" waitingTime="0.00" waitingCount="0" stopTime="0.00" timeLoss="19.29" rerouteNo="1" devices="tripinfo_193 routing_193" vType="DEFAULT_VEHTYPE" speedFactor="1.09" vaporized=""/>
    <tripinfo id="219" depart="219.00" departLane="E10_0" departPos="5.10" departSpeed="0.00" departDelay="0.00" arrival="268.00" arrivalLane="E30_0" arrivalPos="270.36" arrivalSpeed="12.35" duration="49.00" routeLength="546.03" waitingTime="0.00" waitingCount="0" stopTime="0.00" timeLoss="6.74" rerouteNo="1" devices="tripinfo_219 routing_219" vType="DEFAULT_VEHTYPE" speedFactor="0.94" vaporized=""/>
    <tripinfo id="221" depart="221.00" departLane="E20_0" departPos="5.10" departSpeed="0.00" departDelay="0.00" arrival="269.00" arrivalLane="E7_0" arrivalPos="56.81" arrivalSpeed="11.64" duration="48.00" routeLength="486.74" waitingTime="0.00" waitingCount="0" stopTime="0.00" timeLoss="13.39" rerouteNo="1" devices="tripinfo_221 routing_221" vType="DEFAULT_VEHTYPE" speedFactor="1.03" vaporized=""/>
    <tripinfo id="245" depart="254.00" departLane="-E23_0" departPos="5.10" departSpeed="0.00" departDelay="9.00" arrival="271.00" arrivalLane="-E23_0" arrivalPos="161.76" arrivalSpeed="12.08" duration="17.00" routeLength="156.66" waitingTime="0.00" waitingCount="0" stopTime="0.00" timeLoss="3.72" rerouteNo="1" devices="tripinfo_245 routing_245" vType="DEFAULT_VEHTYPE" speedFactor="0.89" vaporized=""/>
    <tripinfo id="192" depart="192.00" departLane="E0_0" departPos="5.10" departSpeed="0.00" departDelay="0.00" arrival="274.00" arrivalLane="-E30_0" arrivalPos="270.36" arrivalSpeed="11.64" duration="82.00" routeLength="869.64" waitingTime="0.00" waitingCount="0" stopTime="0.00" timeLoss="12.94" rerouteNo="1" devices="tripinfo_192 routing_192" vType="DEFAULT_VEHTYPE" speedFactor="0.92" vaporized=""/>
    <tripinfo id="199" depart="199.00" departLane="E23_0" departPos="5.10" departSpeed="0.00" departDelay="0.00" arrival="276.00" arrivalLane="E11_0" arrivalPos="73.15" arrivalSpeed="13.58" duration="77.00" routeLength="809.14" waitingTime="0.00" waitingCount="0" stopTime="0.00" timeLoss="20.12" rerouteNo="1" devices="tripinfo_199 routing_199" vType="DEFAULT_VEHTYPE" speedFactor="1.06" vaporized=""/>
    <tripinfo id="225" depart="229.00" departLane="E5_0" departPos="5.10" departSpeed="0.00" departDelay="4.00" arrival="276.00" arrivalLane="E28_0" arrivalPos="36.43" arrivalSpeed="11.33" duration="47.00" routeLength="364.57" waitingTime="0.00" waitingCount="0" stopTime="0.00" timeLoss="20.11" rerouteNo="1" devices="tripinfo_225 routing_225" vType="DEFAULT_VEHTYPE" speedFactor="1.03" vaporized=""/>
    <tripinfo id="215" depart="216.00" departLane="-E14_0" departPos="5.10" departSpeed="0.00" departDelay="1.00" arrival="282.00" arrivalLane="E1_0" arrivalPos="141.36" arrivalSpeed="7.68" duration="66.00" routeLength="735.53" waitingTime="0.00" waitingCount="0" stopTime="0.00" timeLoss="20.49" rerouteNo="1" devices="tripinfo_215 routing_215" vType="DEFAULT_VEHTYPE" speedFactor="1.18" vaporized=""/>
    <tripinfo id="227" depart="228.00" departLane="-E26_0" departPos="5.10" departSpeed="0.00" departDelay="1.00" arrival="283.00" arrivalLane="E22_0" arrivalPos="74.59" arrivalSpeed="12.54" duration="55.00" routeLength="572.67" waitingTime="0.00" waitingCount="0" stopTime="0.00" timeLoss="17.08" rerouteNo="1" devices="tripinfo_227 routing_227" vType="DEFAULT_VEHTYPE" speedFactor="1.12" vaporized=""/>
    <tripinfo id="197" depart="197.00" departLane="-E0_0" departPos="5.10" departSpeed="0.00" departDelay="0.00" arrival="289.00" arrivalLane="-E3_0" arrivalPos="118.34" arrivalSpeed="14.92" duration="92.00" routeLength="1205.61" waitingTime="0.00" waitingCount="0" stopTime="0.00" timeLoss="13.04" rerouteNo="1" devices="tripinfo_197 routing_197" vType="DEFAULT_VEHTYPE" speedFactor="1.12" vaporized=""/>
    <tripinfo id="143" depart="143.00" departLane="E32_0" departPos="5.10" departSpeed="0.00" departDelay="0.00" arrival="291.00" arrivalLane="-E12_0" arrivalPos="113.47" arrivalSpeed="14.89" duration="148.00" routeLength="1792.63" waitingTime="0.00" waitingCount="0" stopTime="0.00" timeLoss="26.98" rerouteNo="1" devices="tripinfo_143 routing_143" vType="DEFAULT_VEHTYPE" speedFactor="1.09" vaporized=""/>
    <tripinfo id="103" depart="104.00" departLane="E0_0" departPos="5.10" departSpeed="0.00" departDelay="1.00" arrival="295.00" arrivalLane="-E10_0" arrivalPos="78.75" arrivalSpeed="12.86" duration="191.00" routeLength="2018.12" waitingTime="0.00" waitingCount="0" stopTime="0.00" timeLoss="51.74" rerouteNo="1" devices="tripinfo_103 routing_103" vType="DEFAULT_VEHTYPE" speedFactor="1.08" vaporized=""/>
    <tripinfo id="207" depart="207.00" departLane="-E22_0" departPos="5.10" departSpeed="0.00" departDelay="0.00" arrival="296.00" arrivalLane="-E1_0" arrivalPos="141.36" arrivalSpeed="13.81" duration="89.00" routeLength="1090.20" waitingTime="0.00" waitingCount="0" stopTime="0.00" timeLoss="13.75" rerouteNo="1" devices="tripinfo_207 routing_207" vType="DEFAULT_VEHTYPE" speedFactor="1.06" vaporized=""/>
    <tripinfo id="46" depart="46.00" departLane="E30_0" departPos="5.10" departSpeed="0.00" departDelay="0.00" arrival="302.00" arrivalLane="E1_0" arrivalPos="141.36" arrivalSpeed="11.30" duration="256.00" routeLength="2772.17" waitingTime="0.00" waitingCount="0" stopTime="0.00" timeLoss="31.24" rerouteNo="1" devices="tripinfo_46 routing_46" vType="DEFAULT_VEHTYPE" speedFactor="0.90" vaporized=""/>
    <tripinfo id="99" depart="99.00" departLane="E9_0" departPos="5.10" departSpeed="0.00" departDelay="0.00" arrival="308.00" arrivalLane="E32_0" arrivalPos="90.85" arrivalSpeed="7.52" duration="209.00" routeLength="2076.78" waitingTime="0.00" waitingCount="0" stopTime="0.00" timeLoss="38.33" rerouteNo="1" devices="tripinfo_99 routing_99" vType="DEFAULT_VEHTYPE" speedFactor="0.90" vaporized=""/>
    <tripinfo id="238" depart="244.00" departLane="E20_0" departPos="5.10" departSpeed="0.00" departDelay="6.00" arrival="310.00" arrivalLane="E26_0" arrivalPos="110.14" arrivalSpeed="7.45" duration="66.00" routeLength="687.02" waitingTime="0.00" waitingCount="0" stopTime="0.00" timeLoss="13.10" rerouteNo="1" devices="tripinfo_238 routing_238" vType="DEFAULT_VEHTYPE" speedFactor="0.95" vaporized=""/>
    <tripinfo id="7" depart="7.00" departLane="E23_0" departPos="5.10" departSpeed="0.00" departDelay="0.00" arrival="311.00" arrivalLane="E16_0" arrivalPos="75.70" arrivalSpeed="12.13" duration="304.00" routeLength="3122.50" waitingTime="0.00" waitingCount="0" stopTime="0.00" timeLoss="45.02" rerouteNo="1" devices="tripinfo_7 routing_7" vType="DEFAULT_VEHTYPE" speedFactor="0.89" vaporized=""/>